 variables = "x", "y", "z", "rhoi", "vxi", "vyi", "vzi", "pi", "tracei", "rhoe",
  "vxe", "vye",   "vze", "pe", "tracee", "bx", "by", "bz", "ex", "ey", "ez", "co
 rpotB", "corpotE", "rhoiRe", "rhoiIm", "mxiRe", "mxiIm", "myiRe", "myiIm", "mzi
 Re", "mziIm", "ergiRe", "ergiIm", "rhoeRe", "rhoeIm", "mxeRe", "mxeIm", "myeRe"
 , "myeIm", "mzeRe", "mzeIm", "ergeRe", "ergeIm", "bxRe", "bxIm", "byRe" "byIm",
  "bzRe", "bzIm", "exRe", "exIm", "eyRe", "eyIm", "ezRe", "ezIm"
 zone i =         4000  j =            1  k =            1  f = point
 -.999750E+0000 0.100000E+0001 0.100000E+0001 0.228571E+0001 0.102698E+0001 0.000000E+0000 0.000000E+0000 0.237500E+0001 -.999987E+0000 0.228571E-0001 0.102698E+0001 0.000000E+0000 0.000000E+0000 0.237500E+0001 -.999987E+0000 0.141421E+0001 0.000000E+0000 0.000000E+0000 0.110698E-0046 0.000000E+0000 0.000000E+0000 0.000000E+0000 0.000000E+0000 -.442875E-0008 -.442875E-0008 0.492873E-0009 0.492873E-0009 0.975117E-0009 -.975117E-0009 0.103427E-0010 -.103427E-0010 0.149989E-0008 0.149989E-0008 -.453944E-0010 -.453944E-0010 0.385478E-0011 0.385478E-0011 0.762829E-0011 -.762829E-0011 -.785134E-0011 0.785134E-0011 0.961318E-0009 0.961318E-0009 0.126659E-0010 0.126659E-0010 -.123956E-0026 0.123956E-0026 0.170897E-0011 -.170897E-0011 0.324294E-0013 0.324294E-0013 0.176165E-0009 -.176165E-0009 0.263614E-0012 -.263614E-0012
 -.999250E+0000 0.100000E+0001 0.100000E+0001 0.228571E+0001 0.102698E+0001 0.000000E+0000 0.000000E+0000 0.237500E+0001 -.999963E+0000 0.228571E-0001 0.102698E+0001 0.000000E+0000 0.000000E+0000 0.237500E+0001 -.999963E+0000 0.141421E+0001 0.000000E+0000 0.000000E+0000 0.293428E-0031 0.000000E+0000 0.000000E+0000 0.000000E+0000 0.000000E+0000 -.391933E-0007 -.391933E-0007 0.428668E-0008 0.428668E-0008 0.865153E-0008 -.865153E-0008 0.106830E-0009 -.106830E-0009 0.130493E-0007 0.130493E-0007 -.400749E-0009 -.400749E-0009 0.306670E-0010 0.306670E-0010 0.676427E-0010 -.676427E-0010 -.852289E-0010 0.852289E-0010 0.862523E-0008 0.862523E-0008 0.137397E-0009 0.137397E-0009 -.893425E-0013 0.893425E-0013 0.194231E-0010 -.194231E-0010 -.228980E-0012 -.228980E-0012 0.159076E-0008 -.159076E-0008 0.233846E-0011 -.233846E-0011
 -.998750E+0000 0.100000E+0001 0.100000E+0001 0.228571E+0001 0.102698E+0001 0.000000E+0000 0.000000E+0000 0.237500E+0001 -.999938E+0000 0.228571E-0001 0.102698E+0001 0.000000E+0000 0.000000E+0000 0.237500E+0001 -.999938E+0000 0.141421E+0001 0.000000E+0000 0.000000E+0000 0.303134E-0029 0.000000E+0000 0.000000E+0000 0.000000E+0000 0.000000E+0000 -.107538E-0006 -.107538E-0006 0.118012E-0007 0.118012E-0007 0.237026E-0007 -.237026E-0007 0.324409E-0009 -.324409E-0009 0.359393E-0007 0.359393E-0007 -.110037E-0008 -.110037E-0008 0.112966E-0009 0.112966E-0009 0.185195E-0009 -.185195E-0009 -.263922E-0009 0.263922E-0009 0.235835E-0007 0.235835E-0007 0.425348E-0009 0.425348E-0009 -.436758E-0012 0.436758E-0012 0.807244E-0011 -.807244E-0011 -.178741E-0011 -.178741E-0011 0.436166E-0008 -.436166E-0008 0.640345E-0011 -.640345E-0011
 -.998250E+0000 0.100000E+0001 0.100000E+0001 0.228571E+0001 0.102698E+0001 0.000000E+0000 0.000000E+0000 0.237500E+0001 -.999914E+0000 0.228571E-0001 0.102698E+0001 0.000000E+0000 0.000000E+0000 0.237500E+0001 -.999914E+0000 0.141421E+0001 0.000000E+0000 0.000000E+0000 0.104965E-0027 0.000000E+0000 0.000000E+0000 0.000000E+0000 0.000000E+0000 -.208095E-0006 -.208095E-0006 0.228279E-0007 0.228279E-0007 0.458209E-0007 -.458209E-0007 0.689159E-0009 -.689159E-0009 0.695413E-0007 0.695413E-0007 -.212958E-0008 -.212958E-0008 0.239870E-0009 0.239870E-0009 0.357811E-0009 -.357811E-0009 -.573050E-0009 0.573050E-0009 0.455969E-0007 0.455969E-0007 0.923283E-0009 0.923283E-0009 -.127252E-0011 0.127252E-0011 -.183293E-0010 0.183293E-0010 -.559636E-0011 -.559636E-0011 0.846619E-0008 -.846619E-0008 0.123760E-0010 -.123760E-0010
 -.997750E+0000 0.100000E+0001 0.100000E+0001 0.228571E+0001 0.102698E+0001 0.000000E+0000 0.000000E+0000 0.237500E+0001 -.999891E+0000 0.228571E-0001 0.102698E+0001 0.000000E+0000 0.000000E+0000 0.237500E+0001 -.999891E+0000 0.141421E+0001 0.000000E+0000 0.000000E+0000 0.185727E-0026 0.000000E+0000 0.000000E+0000 0.000000E+0000 0.000000E+0000 -.339705E-0006 -.339705E-0006 0.372460E-0007 0.372460E-0007 0.747206E-0007 -.747206E-0007 0.122267E-0008 -.122267E-0008 0.113496E-0006 0.113496E-0006 -.347673E-0008 -.347673E-0008 0.424077E-0009 0.424077E-0009 0.583126E-0009 -.583126E-0009 -.103729E-0008 0.103729E-0008 0.743820E-0007 0.743820E-0007 0.167082E-0008 0.167082E-0008 -.287947E-0011 0.287947E-0011 -.818955E-0010 0.818955E-0010 -.125541E-0010 -.125541E-0010 0.138653E-0007 -.138653E-0007 0.201770E-0010 -.201770E-0010
 -.997250E+0000 0.100000E+0001 0.100000E+0001 0.228571E+0001 0.102698E+0001 0.000000E+0000 0.000000E+0000 0.237500E+0001 -.999867E+0000 0.228571E-0001 0.102698E+0001 0.000000E+0000 0.000000E+0000 0.237500E+0001 -.999867E+0000 0.141421E+0001 0.000000E+0000 0.000000E+0000 0.205866E-0025 0.000000E+0000 0.000000E+0000 0.000000E+0000 0.000000E+0000 -.501208E-0006 -.501208E-0006 0.549280E-0007 0.549280E-0007 0.110125E-0006 -.110125E-0006 0.194528E-0008 -.194528E-0008 0.167421E-0006 0.167421E-0006 -.513010E-0008 -.513010E-0008 0.678140E-0009 0.678140E-0009 0.858844E-0009 -.858844E-0009 -.168027E-0008 0.168027E-0008 0.109666E-0006 0.109666E-0006 0.270589E-0008 0.270589E-0008 -.559321E-0011 0.559321E-0011 -.204619E-0009 0.204619E-0009 -.235194E-0010 -.235194E-0010 0.205219E-0007 -.205219E-0007 0.297300E-0010 -.297300E-0010
 -.996750E+0000 0.100000E+0001 0.100000E+0001 0.228571E+0001 0.102698E+0001 0.000000E+0000 0.000000E+0000 0.237500E+0001 -.999844E+0000 0.228571E-0001 0.102698E+0001 0.000000E+0000 0.000000E+0000 0.237500E+0001 -.999844E+0000 0.141421E+0001 0.000000E+0000 0.000000E+0000 0.161834E-0024 0.000000E+0000 0.000000E+0000 0.000000E+0000 0.000000E+0000 -.691489E-0006 -.691489E-0006 0.757469E-0007 0.757469E-0007 0.151772E-0006 -.151772E-0006 0.287559E-0008 -.287559E-0008 0.230937E-0006 0.230937E-0006 -.707837E-0008 -.707837E-0008 0.101482E-0008 0.101482E-0008 0.118278E-0008 -.118278E-0008 -.252503E-0008 0.252503E-0008 0.151192E-0006 0.151192E-0006 0.406546E-0008 0.406546E-0008 -.979975E-0011 0.979975E-0011 -.408829E-0009 0.408829E-0009 -.392941E-0010 -.392941E-0010 0.284012E-0007 -.284012E-0007 0.409631E-0010 -.409631E-0010
 -.996250E+0000 0.100000E+0001 0.100000E+0001 0.228571E+0001 0.102698E+0001 0.000000E+0000 0.000000E+0000 0.237500E+0001 -.999821E+0000 0.228571E-0001 0.102698E+0001 0.000000E+0000 0.000000E+0000 0.237500E+0001 -.999821E+0000 0.141421E+0001 0.000000E+0000 0.000000E+0000 0.978785E-0024 0.000000E+0000 0.000000E+0000 0.000000E+0000 0.000000E+0000 -.909474E-0006 -.909474E-0006 0.995811E-0007 0.995811E-0007 0.199407E-0006 -.199407E-0006 0.403053E-0008 -.403053E-0008 0.303679E-0006 0.303679E-0006 -.931064E-0008 -.931064E-0008 0.144775E-0008 0.144775E-0008 0.155275E-0008 -.155275E-0008 -.359399E-0008 0.359399E-0008 0.198714E-0006 0.198714E-0006 0.578550E-0008 0.578550E-0008 -.159360E-0010 0.159360E-0010 -.718118E-0009 0.718118E-0009 -.606405E-0010 -.606405E-0010 0.374695E-0007 -.374695E-0007 0.538051E-0010 -.538051E-0010
 -.995750E+0000 0.100000E+0001 0.100000E+0001 0.228571E+0001 0.102698E+0001 0.000000E+0000 0.000000E+0000 0.237500E+0001 -.999798E+0000 0.228571E-0001 0.102698E+0001 0.000000E+0000 0.000000E+0000 0.237500E+0001 -.999798E+0000 0.141421E+0001 0.000000E+0000 0.000000E+0000 0.481278E-0023 0.000000E+0000 0.000000E+0000 0.000000E+0000 0.000000E+0000 -.115413E-0005 -.115413E-0005 0.126312E-0006 0.126312E-0006 0.252786E-0006 -.252786E-0006 0.542542E-0008 -.542542E-0008 0.385290E-0006 0.385290E-0006 -.118164E-0007 -.118164E-0007 0.199161E-0008 0.199161E-0008 0.196666E-0008 -.196666E-0008 -.490909E-0008 0.490909E-0008 0.251994E-0006 0.251994E-0006 0.790117E-0008 0.790117E-0008 -.244889E-0010 0.244889E-0010 -.115773E-0008 0.115773E-0008 -.882943E-0010 -.882943E-0010 0.476946E-0007 -.476946E-0007 0.681876E-0010 -.681876E-0010
 -.995250E+0000 0.100000E+0001 0.100000E+0001 0.228571E+0001 0.102698E+0001 0.000000E+0000 0.000000E+0000 0.237500E+0001 -.999776E+0000 0.228571E-0001 0.102698E+0001 0.000000E+0000 0.000000E+0000 0.237500E+0001 -.999776E+0000 0.141421E+0001 0.000000E+0000 0.000000E+0000 0.199968E-0022 0.000000E+0000 0.000000E+0000 0.000000E+0000 0.000000E+0000 -.142446E-0005 -.142446E-0005 0.155827E-0006 0.155827E-0006 0.311675E-0006 -.311675E-0006 0.707412E-0008 -.707412E-0008 0.475428E-0006 0.475428E-0006 -.145855E-0007 -.145855E-0007 0.266217E-0008 0.266217E-0008 0.242245E-0008 -.242245E-0008 -.649189E-0008 0.649189E-0008 0.310804E-0006 0.310804E-0006 0.104470E-0007 0.104470E-0007 -.359970E-0010 0.359970E-0010 -.175457E-0008 0.175457E-0008 -.122924E-0009 -.122924E-0009 0.590454E-0007 -.590454E-0007 0.840448E-0010 -.840448E-0010
 -.994750E+0000 0.100000E+0001 0.100000E+0001 0.228571E+0001 0.102698E+0001 0.000000E+0000 0.000000E+0000 0.237500E+0001 -.999754E+0000 0.228571E-0001 0.102698E+0001 0.000000E+0000 0.000000E+0000 0.237500E+0001 -.999754E+0000 0.141421E+0001 0.000000E+0000 0.000000E+0000 0.722039E-0022 0.000000E+0000 0.000000E+0000 0.000000E+0000 0.000000E+0000 -.171950E-0005 -.171950E-0005 0.188013E-0006 0.188013E-0006 0.375847E-0006 -.375847E-0006 0.898909E-0008 -.898909E-0008 0.573759E-0006 0.573759E-0006 -.176082E-0007 -.176082E-0007 0.347620E-0008 0.347620E-0008 0.291809E-0008 -.291809E-0008 -.836371E-0008 0.836371E-0008 0.374925E-0006 0.374925E-0006 0.134571E-0007 0.134571E-0007 -.510533E-0010 0.510533E-0010 -.253714E-0008 0.253714E-0008 -.165117E-0009 -.165117E-0009 0.714920E-0007 -.714920E-0007 0.101315E-0009 -.101315E-0009
 -.994250E+0000 0.100000E+0001 0.100000E+0001 0.228571E+0001 0.102698E+0001 0.000000E+0000 0.000000E+0000 0.237500E+0001 -.999732E+0000 0.228571E-0001 0.102698E+0001 0.000000E+0000 0.000000E+0000 0.237500E+0001 -.999732E+0000 0.141421E+0001 0.000000E+0000 0.000000E+0000 0.231435E-0021 0.000000E+0000 0.000000E+0000 0.000000E+0000 0.000000E+0000 -.203833E-0005 -.203833E-0005 0.222766E-0006 0.222766E-0006 0.445088E-0006 -.445088E-0006 0.111815E-0007 -.111815E-0007 0.679960E-0006 0.679960E-0006 -.208752E-0007 -.208752E-0007 0.445142E-0008 0.445142E-0008 0.345161E-0008 -.345161E-0008 -.105457E-0007 0.105457E-0007 0.444144E-0006 0.444144E-0006 0.169654E-0007 0.169654E-0007 -.703104E-0010 0.703104E-0010 -.353527E-0008 0.353527E-0008 -.215525E-0009 -.215525E-0009 0.850055E-0007 -.850055E-0007 0.119939E-0009 -.119939E-0009
 -.993750E+0000 0.100000E+0001 0.100000E+0001 0.228571E+0001 0.102698E+0001 0.000000E+0000 0.000000E+0000 0.237500E+0001 -.999710E+0000 0.228571E-0001 0.102698E+0001 0.000000E+0000 0.000000E+0000 0.237500E+0001 -.999710E+0000 0.141421E+0001 0.000000E+0000 0.000000E+0000 0.669683E-0021 0.000000E+0000 0.000000E+0000 0.000000E+0000 0.000000E+0000 -.238006E-0005 -.238006E-0005 0.259980E-0006 0.259980E-0006 0.519189E-0006 -.519189E-0006 0.136611E-0007 -.136611E-0007 0.793718E-0006 0.793718E-0006 -.243774E-0007 -.243774E-0007 0.560647E-0008 0.560647E-0008 0.402107E-0008 -.402107E-0008 -.130590E-0007 0.130590E-0007 0.518256E-0006 0.518256E-0006 0.210056E-0007 0.210056E-0007 -.944893E-0010 0.944893E-0010 -.478002E-0008 0.478002E-0008 -.274786E-0009 -.274786E-0009 0.995580E-0007 -.995580E-0007 0.139852E-0009 -.139852E-0009
 -.993250E+0000 0.100000E+0001 0.100000E+0001 0.228571E+0001 0.102698E+0001 0.000000E+0000 0.000000E+0000 0.237500E+0001 -.999689E+0000 0.228571E-0001 0.102698E+0001 0.000000E+0000 0.000000E+0000 0.237500E+0001 -.999689E+0000 0.141421E+0001 0.000000E+0000 0.000000E+0000 0.177381E-0020 0.000000E+0000 0.000000E+0000 0.000000E+0000 0.000000E+0000 -.274384E-0005 -.274384E-0005 0.299556E-0006 0.299556E-0006 0.597950E-0006 -.597950E-0006 0.164369E-0007 -.164369E-0007 0.914727E-0006 0.914727E-0006 -.281060E-0007 -.281060E-0007 0.696088E-0008 0.696088E-0008 0.462454E-0008 -.462454E-0008 -.159247E-0007 0.159247E-0007 0.597062E-0006 0.597062E-0006 0.256114E-0007 0.256114E-0007 -.124393E-0009 0.124393E-0009 -.630407E-0008 0.630407E-0008 -.342971E-0009 -.342971E-0009 0.115123E-0006 -.115123E-0006 0.160906E-0009 -.160906E-0009
 -.992750E+0000 0.100000E+0001 0.100000E+0001 0.228571E+0001 0.102698E+0001 0.000000E+0000 0.000000E+0000 0.237500E+0001 -.999668E+0000 0.228571E-0001 0.102698E+0001 0.000000E+0000 0.000000E+0000 0.237500E+0001 -.999668E+0000 0.141421E+0001 0.000000E+0000 0.000000E+0000 0.435225E-0020 0.000000E+0000 0.000000E+0000 0.000000E+0000 0.000000E+0000 -.312883E-0005 -.312883E-0005 0.341396E-0006 0.341396E-0006 0.681179E-0006 -.681179E-0006 0.195162E-0007 -.195162E-0007 0.104269E-0005 0.104269E-0005 -.320528E-0007 -.320528E-0007 0.853509E-0008 0.853509E-0008 0.526011E-0008 -.526011E-0008 -.191644E-0007 0.191644E-0007 0.680371E-0006 0.680371E-0006 0.308172E-0007 0.308172E-0007 -.160910E-0009 0.160910E-0009 -.814199E-0008 0.814199E-0008 -.419773E-0009 -.419773E-0009 0.131675E-0006 -.131675E-0006 0.182728E-0009 -.182728E-0009
 -.992250E+0000 0.100000E+0001 0.100000E+0001 0.228571E+0001 0.102698E+0001 0.000000E+0000 0.000000E+0000 0.237500E+0001 -.999647E+0000 0.228571E-0001 0.102698E+0001 0.000000E+0000 0.000000E+0000 0.237500E+0001 -.999647E+0000 0.141421E+0001 0.000000E+0000 0.000000E+0000 0.999776E-0020 0.000000E+0000 0.000000E+0000 0.000000E+0000 0.000000E+0000 -.353425E-0005 -.353425E-0005 0.385405E-0006 0.385405E-0006 0.768692E-0006 -.768692E-0006 0.229058E-0007 -.229058E-0007 0.117732E-0005 0.117732E-0005 -.362095E-0007 -.362095E-0007 0.103503E-0007 0.103503E-0007 0.592592E-0008 -.592592E-0008 -.227994E-0007 0.227994E-0007 0.767998E-0006 0.767998E-0006 0.366585E-0007 0.366585E-0007 -.205208E-0009 0.205208E-0009 -.103299E-0007 0.103299E-0007 -.504444E-0009 -.504444E-0009 0.149189E-0006 -.149189E-0006 0.205280E-0009 -.205280E-0009
 -.991750E+0000 0.100000E+0001 0.100000E+0001 0.228571E+0001 0.102698E+0001 0.000000E+0000 0.000000E+0000 0.237500E+0001 -.999626E+0000 0.228571E-0001 0.102698E+0001 0.000000E+0000 0.000000E+0000 0.237500E+0001 -.999626E+0000 0.141421E+0001 0.000000E+0000 0.000000E+0000 0.217132E-0019 0.000000E+0000 0.000000E+0000 0.000000E+0000 0.000000E+0000 -.395932E-0005 -.395932E-0005 0.431488E-0006 0.431488E-0006 0.860312E-0006 -.860312E-0006 0.266110E-0007 -.266110E-0007 0.131834E-0005 0.131834E-0005 -.405685E-0007 -.405685E-0007 0.124281E-0007 0.124281E-0007 0.662013E-0008 -.662013E-0008 -.268515E-0007 0.268515E-0007 0.859768E-0006 0.859768E-0006 0.431704E-0007 0.431704E-0007 -.258243E-0009 0.258243E-0009 -.129087E-0007 0.129087E-0007 -.594601E-0009 -.594601E-0009 0.167643E-0006 -.167643E-0006 0.230300E-0009 -.230300E-0009
 -.991250E+0000 0.100000E+0001 0.100000E+0001 0.228571E+0001 0.102698E+0001 0.000000E+0000 0.000000E+0000 0.237500E+0001 -.999606E+0000 0.228571E-0001 0.102698E+0001 0.000000E+0000 0.000000E+0000 0.237500E+0001 -.999606E+0000 0.141421E+0001 0.000000E+0000 0.000000E+0000 0.449966E-0019 0.000000E+0000 0.000000E+0000 0.000000E+0000 0.000000E+0000 -.440332E-0005 -.440332E-0005 0.479552E-0006 0.479552E-0006 0.955869E-0006 -.955869E-0006 0.306366E-0007 -.306366E-0007 0.146544E-0005 0.146544E-0005 -.451221E-0007 -.451221E-0007 0.147896E-0007 0.147896E-0007 0.734092E-0008 -.734092E-0008 -.313424E-0007 0.313424E-0007 0.955521E-0006 0.955521E-0006 0.503848E-0007 0.503848E-0007 -.321297E-0009 0.321297E-0009 -.159290E-0007 0.159290E-0007 -.692929E-0009 -.692929E-0009 0.187018E-0006 -.187018E-0006 0.259666E-0009 -.259666E-0009
 -.990750E+0000 0.100000E+0001 0.100000E+0001 0.228571E+0001 0.102698E+0001 0.000000E+0000 0.000000E+0000 0.237500E+0001 -.999586E+0000 0.228571E-0001 0.102698E+0001 0.000000E+0000 0.000000E+0000 0.237500E+0001 -.999586E+0000 0.141421E+0001 0.000000E+0000 0.000000E+0000 0.897394E-0019 0.000000E+0000 0.000000E+0000 0.000000E+0000 0.000000E+0000 -.486554E-0005 -.486554E-0005 0.529499E-0006 0.529499E-0006 0.105520E-0005 -.105520E-0005 0.349862E-0007 -.349862E-0007 0.161833E-0005 0.161833E-0005 -.498630E-0007 -.498630E-0007 0.174576E-0007 0.174576E-0007 0.808635E-0008 -.808635E-0008 -.362948E-0007 0.362948E-0007 0.105511E-0005 0.105511E-0005 0.583322E-0007 0.583322E-0007 -.396495E-0009 0.396495E-0009 -.194531E-0007 0.194531E-0007 -.822699E-0009 -.822699E-0009 0.207297E-0006 -.207297E-0006 0.289935E-0009 -.289935E-0009
 -.990250E+0000 0.100000E+0001 0.100000E+0001 0.228571E+0001 0.102698E+0001 0.000000E+0000 0.000000E+0000 0.237500E+0001 -.999566E+0000 0.228571E-0001 0.102698E+0001 0.000000E+0000 0.000000E+0000 0.237500E+0001 -.999566E+0000 0.141421E+0001 0.000000E+0000 0.000000E+0000 0.173516E-0018 0.000000E+0000 0.000000E+0000 0.000000E+0000 0.000000E+0000 -.534530E-0005 -.534530E-0005 0.581232E-0006 0.581232E-0006 0.115815E-0005 -.115815E-0005 0.396622E-0007 -.396622E-0007 0.177673E-0005 0.177673E-0005 -.547842E-0007 -.547842E-0007 0.204639E-0007 0.204639E-0007 0.885373E-0008 -.885373E-0008 -.417360E-0007 0.417360E-0007 0.115838E-0005 0.115838E-0005 0.670553E-0007 0.670553E-0007 -.486538E-0009 0.486538E-0009 -.235577E-0007 0.235577E-0007 -.105366E-0008 -.105366E-0008 0.228467E-0006 -.228467E-0006 0.310010E-0009 -.310010E-0009
 -.989750E+0000 0.100000E+0001 0.100000E+0001 0.228571E+0001 0.102698E+0001 0.000000E+0000 0.000000E+0000 0.237500E+0001 -.999546E+0000 0.228571E-0001 0.102698E+0001 0.000000E+0000 0.000000E+0000 0.237500E+0001 -.999546E+0000 0.141421E+0001 0.000000E+0000 0.000000E+0000 0.327085E-0018 0.000000E+0000 0.000000E+0000 0.000000E+0000 0.000000E+0000 -.584200E-0005 -.584200E-0005 0.634610E-0006 0.634610E-0006 0.126457E-0005 -.126457E-0005 0.446644E-0007 -.446644E-0007 0.194022E-0005 0.194022E-0005 -.598788E-0007 -.598788E-0007 0.238659E-0007 0.238659E-0007 0.963965E-0008 -.963965E-0008 -.477064E-0007 0.477064E-0007 0.126528E-0005 0.126528E-0005 0.766276E-0007 0.766276E-0007 -.591620E-0009 0.591620E-0009 -.282970E-0007 0.282970E-0007 -.154618E-0008 -.154618E-0008 0.250542E-0006 -.250542E-0006 0.309336E-0009 -.309336E-0009
 -.989250E+0000 0.100000E+0001 0.100000E+0001 0.228571E+0001 0.102698E+0001 0.000000E+0000 0.000000E+0000 0.237500E+0001 -.999527E+0000 0.228571E-0001 0.102698E+0001 0.000000E+0000 0.000000E+0000 0.237500E+0001 -.999527E+0000 0.141421E+0001 0.000000E+0000 0.000000E+0000 0.604020E-0018 0.000000E+0000 0.000000E+0000 0.000000E+0000 0.000000E+0000 -.635500E-0005 -.635500E-0005 0.689510E-0006 0.689510E-0006 0.137429E-0005 -.137429E-0005 0.499918E-0007 -.499918E-0007 0.210850E-0005 0.210850E-0005 -.651405E-0007 -.651405E-0007 0.277360E-0007 0.277360E-0007 0.104413E-0007 -.104413E-0007 -.542476E-0007 0.542476E-0007 0.137564E-0005 0.137564E-0005 0.871375E-0007 0.871375E-0007 -.717788E-0009 0.717788E-0009 -.333684E-0007 0.333684E-0007 -.249652E-0008 -.249652E-0008 0.273497E-0006 -.273497E-0006 0.279454E-0009 -.279454E-0009
 -.988750E+0000 0.100000E+0001 0.100000E+0001 0.228571E+0001 0.102698E+0001 0.000000E+0000 0.000000E+0000 0.237500E+0001 -.999508E+0000 0.228571E-0001 0.102698E+0001 0.000000E+0000 0.000000E+0000 0.237500E+0001 -.999508E+0000 0.141421E+0001 0.000000E+0000 0.000000E+0000 0.104012E-0017 0.000000E+0000 0.000000E+0000 0.000000E+0000 0.000000E+0000 -.688355E-0005 -.688355E-0005 0.745948E-0006 0.745948E-0006 0.148717E-0005 -.148717E-0005 0.556469E-0007 -.556469E-0007 0.228170E-0005 0.228170E-0005 -.705641E-0007 -.705641E-0007 0.321191E-0007 0.321191E-0007 0.112594E-0007 -.112594E-0007 -.613681E-0007 0.613681E-0007 0.148904E-0005 0.148904E-0005 0.986444E-0007 0.986444E-0007 -.871795E-0009 0.871795E-0009 -.379465E-0007 0.379465E-0007 -.331533E-0008 -.331533E-0008 0.297152E-0006 -.297152E-0006 0.224607E-0009 -.224607E-0009
 -.988250E+0000 0.100000E+0001 0.100000E+0001 0.228571E+0001 0.102698E+0001 0.000000E+0000 0.000000E+0000 0.237500E+0001 -.999489E+0000 0.228571E-0001 0.102698E+0001 0.000000E+0000 0.000000E+0000 0.237500E+0001 -.999489E+0000 0.141421E+0001 0.000000E+0000 0.000000E+0000 0.141627E-0017 0.000000E+0000 0.000000E+0000 0.000000E+0000 0.000000E+0000 -.742702E-0005 -.742702E-0005 0.803919E-0006 0.803919E-0006 0.160307E-0005 -.160307E-0005 0.616289E-0007 -.616289E-0007 0.245976E-0005 0.245976E-0005 -.761439E-0007 -.761439E-0007 0.369916E-0007 0.369916E-0007 0.120997E-0007 -.120997E-0007 -.690680E-0007 0.690680E-0007 0.160525E-0005 0.160525E-0005 0.111206E-0006 0.111206E-0006 -.105572E-0008 0.105572E-0008 -.422403E-0007 0.422403E-0007 -.223705E-0008 -.223705E-0008 0.321442E-0006 -.321442E-0006 0.209143E-0009 -.209143E-0009
 -.987750E+0000 0.100000E+0001 0.100000E+0001 0.228571E+0001 0.102698E+0001 0.000000E+0000 0.000000E+0000 0.237500E+0001 -.999470E+0000 0.228571E-0001 0.102698E+0001 0.000000E+0000 0.000000E+0000 0.237500E+0001 -.999470E+0000 0.141421E+0001 0.000000E+0000 0.000000E+0000 0.154022E-0017 0.000000E+0000 0.000000E+0000 0.000000E+0000 0.000000E+0000 -.798478E-0005 -.798478E-0005 0.863517E-0006 0.863517E-0006 0.172183E-0005 -.172183E-0005 0.679398E-0007 -.679398E-0007 0.264274E-0005 0.264274E-0005 -.818741E-0007 -.818741E-0007 0.422309E-0007 0.422309E-0007 0.129675E-0007 -.129675E-0007 -.773255E-0007 0.773255E-0007 0.172395E-0005 0.172395E-0005 0.124777E-0006 0.124777E-0006 -.127015E-0008 0.127015E-0008 -.485411E-0007 0.485411E-0007 0.175660E-0008 0.175660E-0008 0.346404E-0006 -.346404E-0006 0.371191E-0009 -.371191E-0009
 -.987250E+0000 0.100000E+0001 0.100000E+0001 0.228571E+0001 0.102698E+0001 0.000000E+0000 0.000000E+0000 0.237500E+0001 -.999451E+0000 0.228571E-0001 0.102698E+0001 0.000000E+0000 0.000000E+0000 0.237500E+0001 -.999451E+0000 0.141421E+0001 0.000000E+0000 0.000000E+0000 0.144660E-0017 0.000000E+0000 0.000000E+0000 0.000000E+0000 0.000000E+0000 -.855632E-0005 -.855632E-0005 0.924761E-0006 0.924761E-0006 0.184340E-0005 -.184340E-0005 0.745829E-0007 -.745829E-0007 0.283042E-0005 0.283042E-0005 -.877483E-0007 -.877483E-0007 0.477280E-0007 0.477280E-0007 0.138565E-0007 -.138565E-0007 -.861457E-0007 0.861457E-0007 0.184509E-0005 0.184509E-0005 0.139205E-0006 0.139205E-0006 -.150860E-0008 0.150860E-0008 -.596282E-0007 0.596282E-0007 0.704089E-0008 0.704089E-0008 0.372287E-0006 -.372287E-0006 0.836864E-0009 -.836864E-0009
 -.986750E+0000 0.100000E+0001 0.100000E+0001 0.228571E+0001 0.102698E+0001 0.000000E+0000 0.000000E+0000 0.237500E+0001 -.999433E+0000 0.228571E-0001 0.102698E+0001 0.000000E+0000 0.000000E+0000 0.237500E+0001 -.999433E+0000 0.141421E+0001 0.000000E+0000 0.000000E+0000 0.974660E-0018 0.000000E+0000 0.000000E+0000 0.000000E+0000 0.000000E+0000 -.914132E-0005 -.914132E-0005 0.987411E-0006 0.987411E-0006 0.196776E-0005 -.196776E-0005 0.815579E-0007 -.815579E-0007 0.302191E-0005 0.302191E-0005 -.937598E-0007 -.937598E-0007 0.535258E-0007 0.535258E-0007 0.147504E-0007 -.147504E-0007 -.956031E-0007 0.956031E-0007 0.196890E-0005 0.196890E-0005 0.154338E-0006 0.154338E-0006 -.177289E-0008 0.177289E-0008 -.762968E-0007 0.762968E-0007 0.981499E-0008 0.981499E-0008 0.399347E-0006 -.399347E-0006 0.156271E-0008 -.156271E-0008
 -.986250E+0000 0.100000E+0001 0.100000E+0001 0.228571E+0001 0.102698E+0001 0.000000E+0000 0.000000E+0000 0.237500E+0001 -.999414E+0000 0.228571E-0001 0.102698E+0001 0.000000E+0000 0.000000E+0000 0.237500E+0001 -.999414E+0000 0.141421E+0001 0.000000E+0000 0.000000E+0000 -.258564E-0018 0.000000E+0000 0.000000E+0000 0.000000E+0000 0.000000E+0000 -.973939E-0005 -.973939E-0005 0.105120E-0005 0.105120E-0005 0.209464E-0005 -.209464E-0005 0.888604E-0007 -.888604E-0007 0.321662E-0005 0.321662E-0005 -.999033E-0007 -.999033E-0007 0.597990E-0007 0.597990E-0007 0.156333E-0007 -.156333E-0007 -.105784E-0006 0.105784E-0006 0.209540E-0005 0.209540E-0005 0.170139E-0006 0.170139E-0006 -.209456E-0008 0.209456E-0008 -.962848E-0007 0.962848E-0007 0.636801E-0008 0.636801E-0008 0.427625E-0006 -.427625E-0006 0.228441E-0008 -.228441E-0008
 -.985750E+0000 0.100000E+0001 0.100000E+0001 0.228571E+0001 0.102698E+0001 0.000000E+0000 0.000000E+0000 0.237500E+0001 -.999396E+0000 0.228571E-0001 0.102698E+0001 0.000000E+0000 0.000000E+0000 0.237500E+0001 -.999396E+0000 0.141421E+0001 0.000000E+0000 0.000000E+0000 -.264915E-0017 0.000000E+0000 0.000000E+0000 0.000000E+0000 0.000000E+0000 -.103500E-0004 -.103500E-0004 0.111589E-0005 0.111589E-0005 0.222385E-0005 -.222385E-0005 0.964821E-0007 -.964821E-0007 0.341425E-0005 0.341425E-0005 -.106174E-0006 -.106174E-0006 0.667775E-0007 0.667775E-0007 0.164952E-0007 -.164952E-0007 -.116732E-0006 0.116732E-0006 0.222462E-0005 0.222462E-0005 0.186699E-0006 0.186699E-0006 -.250982E-0008 0.250982E-0008 -.115111E-0006 0.115111E-0006 -.474954E-0008 -.474954E-0008 0.456756E-0006 -.456756E-0006 0.271990E-0008 -.271990E-0008
 -.985250E+0000 0.100000E+0001 0.100000E+0001 0.228571E+0001 0.102698E+0001 0.000000E+0000 0.000000E+0000 0.237500E+0001 -.999378E+0000 0.228571E-0001 0.102698E+0001 0.000000E+0000 0.000000E+0000 0.237500E+0001 -.999378E+0000 0.141421E+0001 0.000000E+0000 0.000000E+0000 -.541168E-0017 0.000000E+0000 0.000000E+0000 0.000000E+0000 0.000000E+0000 -.109727E-0004 -.109727E-0004 0.118113E-0005 0.118113E-0005 0.235528E-0005 -.235528E-0005 0.104414E-0006 -.104414E-0006 0.361412E-0005 0.361412E-0005 -.112567E-0006 -.112567E-0006 0.746770E-0007 0.746770E-0007 0.173400E-0007 -.173400E-0007 -.128479E-0006 0.128479E-0006 0.235666E-0005 0.235666E-0005 0.204065E-0006 0.204065E-0006 -.303566E-0008 0.303566E-0008 -.127917E-0006 0.127917E-0006 -.214418E-0007 -.214418E-0007 0.486279E-0006 -.486279E-0006 0.270720E-0008 -.270720E-0008
 -.984750E+0000 0.100000E+0001 0.100000E+0001 0.228571E+0001 0.102698E+0001 0.000000E+0000 0.000000E+0000 0.237500E+0001 -.999361E+0000 0.228571E-0001 0.102698E+0001 0.000000E+0000 0.000000E+0000 0.237500E+0001 -.999361E+0000 0.141421E+0001 0.000000E+0000 0.000000E+0000 -.683648E-0017 0.000000E+0000 0.000000E+0000 0.000000E+0000 0.000000E+0000 -.116071E-0004 -.116071E-0004 0.124686E-0005 0.124686E-0005 0.248872E-0005 -.248872E-0005 0.112663E-0006 -.112663E-0006 0.381612E-0005 0.381612E-0005 -.119077E-0006 -.119077E-0006 0.835951E-0007 0.835951E-0007 0.181853E-0007 -.181853E-0007 -.141062E-0006 0.141062E-0006 0.249160E-0005 0.249160E-0005 0.221985E-0006 0.221985E-0006 -.365861E-0008 0.365861E-0008 -.132233E-0006 0.132233E-0006 -.384691E-0007 -.384691E-0007 0.515955E-0006 -.515955E-0006 0.183255E-0008 -.183255E-0008
 -.984250E+0000 0.100000E+0001 0.100000E+0001 0.228571E+0001 0.102698E+0001 0.000000E+0000 0.000000E+0000 0.237500E+0001 -.999343E+0000 0.228571E-0001 0.102698E+0001 0.000000E+0000 0.000000E+0000 0.237500E+0001 -.999343E+0000 0.141421E+0001 0.000000E+0000 0.000000E+0000 -.161885E-0017 0.000000E+0000 0.000000E+0000 0.000000E+0000 0.000000E+0000 -.122526E-0004 -.122526E-0004 0.131315E-0005 0.131315E-0005 0.262418E-0005 -.262418E-0005 0.121227E-0006 -.121227E-0006 0.402044E-0005 0.402044E-0005 -.125698E-0006 -.125698E-0006 0.934826E-0007 0.934826E-0007 0.190338E-0007 -.190338E-0007 -.154487E-0006 0.154487E-0006 0.262993E-0005 0.262993E-0005 0.240564E-0006 0.240564E-0006 -.439797E-0008 0.439797E-0008 -.129463E-0006 0.129463E-0006 -.508815E-0007 -.508815E-0007 0.546253E-0006 -.546253E-0006 -.139457E-0008 0.139457E-0008
 -.983750E+0000 0.100000E+0001 0.100000E+0001 0.228571E+0001 0.102698E+0001 0.000000E+0000 0.000000E+0000 0.237500E+0001 -.999326E+0000 0.228571E-0001 0.102698E+0001 0.000000E+0000 0.000000E+0000 0.237500E+0001 -.999326E+0000 0.141421E+0001 0.000000E+0000 0.000000E+0000 0.188603E-0016 0.000000E+0000 0.000000E+0000 0.000000E+0000 0.000000E+0000 -.129086E-0004 -.129086E-0004 0.137996E-0005 0.137996E-0005 0.276215E-0005 -.276215E-0005 0.130030E-0006 -.130030E-0006 0.422697E-0005 0.422697E-0005 -.132419E-0006 -.132419E-0006 0.104344E-0006 0.104344E-0006 0.198647E-0007 -.198647E-0007 -.168719E-0006 0.168719E-0006 0.277271E-0005 0.277271E-0005 0.262010E-0006 0.262010E-0006 -.558161E-0008 0.558161E-0008 -.121966E-0006 0.121966E-0006 -.573241E-0007 -.573241E-0007 0.577544E-0006 -.577544E-0006 -.904224E-0008 0.904224E-0008
 -.983250E+0000 0.100000E+0001 0.100000E+0001 0.228571E+0001 0.102698E+0001 0.000000E+0000 0.000000E+0000 0.237500E+0001 -.999309E+0000 0.228571E-0001 0.102698E+0001 0.000000E+0000 0.000000E+0000 0.237500E+0001 -.999309E+0000 0.141421E+0001 0.000000E+0000 0.000000E+0000 -.636755E-0016 0.000000E+0000 0.000000E+0000 0.000000E+0000 0.000000E+0000 -.135754E-0004 -.135754E-0004 0.144653E-0005 0.144653E-0005 0.290340E-0005 -.290340E-0005 0.138864E-0006 -.138864E-0006 0.443369E-0005 0.443369E-0005 -.139237E-0006 -.139237E-0006 0.116408E-0006 0.116408E-0006 0.206655E-0007 -.206655E-0007 -.183636E-0006 0.183636E-0006 0.292012E-0005 0.292012E-0005 0.291824E-0006 0.291824E-0006 -.804697E-0008 0.804697E-0008 -.108369E-0006 0.108369E-0006 -.581778E-0007 -.581778E-0007 0.609755E-0006 -.609755E-0006 -.220211E-0007 0.220211E-0007
 -.982750E+0000 0.100000E+0001 0.100000E+0001 0.228571E+0001 0.102698E+0001 0.000000E+0000 0.000000E+0000 0.237500E+0001 -.999292E+0000 0.228571E-0001 0.102698E+0001 0.000000E+0000 0.000000E+0000 0.237500E+0001 -.999292E+0000 0.141421E+0001 0.000000E+0000 0.000000E+0000 -.810325E-0015 0.000000E+0000 0.000000E+0000 0.000000E+0000 0.000000E+0000 -.142538E-0004 -.142538E-0004 0.151148E-0005 0.151148E-0005 0.304765E-0005 -.304765E-0005 0.147388E-0006 -.147388E-0006 0.463660E-0005 0.463660E-0005 -.146152E-0006 -.146152E-0006 0.130003E-0006 0.130003E-0006 0.214207E-0007 -.214207E-0007 -.199025E-0006 0.199025E-0006 0.307130E-0005 0.307130E-0005 0.338652E-0006 0.338652E-0006 -.116727E-0007 0.116727E-0007 -.815707E-0007 0.815707E-0007 -.465850E-0007 -.465850E-0007 0.640704E-0006 -.640704E-0006 -.345282E-0007 0.345282E-0007